+ 0 /NodeList/0/DeviceList/0/$ns3::PointToPointNetDevice/TxQueue/Enqueue ns3::PppHeader (Point-to-Point Protocol: IP (0x0021)) ns3::Ipv4Header (tos 0x0 DSCP Default ECN Not-ECT ttl 64 id 0 protocol 17 offset (bytes) 0 flags [none] length: 1052 10.1.1.1 > 10.1.2.2) ns3::UdpHeader (length: 1032 49153 > 8000) ns3::SeqTsHeader ((seq=0 time=0)) Payload (size=1012)
- 0 /NodeList/0/DeviceList/0/$ns3::PointToPointNetDevice/TxQueue/Dequeue ns3::PppHeader (Point-to-Point Protocol: IP (0x0021)) ns3::Ipv4Header (tos 0x0 DSCP Default ECN Not-ECT ttl 64 id 0 protocol 17 offset (bytes) 0 flags [none] length: 1052 10.1.1.1 > 10.1.2.2) ns3::UdpHeader (length: 1032 49153 > 8000) ns3::SeqTsHeader ((seq=0 time=0)) Payload (size=1012)
r 0.0036864 /NodeList/1/DeviceList/0/$ns3::PointToPointNetDevice/MacRx ns3::Ipv4Header (tos 0x0 DSCP Default ECN Not-ECT ttl 64 id 0 protocol 17 offset (bytes) 0 flags [none] length: 1052 10.1.1.1 > 10.1.2.2) ns3::UdpHeader (length: 1032 49153 > 8000) ns3::SeqTsHeader ((seq=0 time=0)) Payload (size=1012)
+ 0.05 /NodeList/0/DeviceList/0/$ns3::PointToPointNetDevice/TxQueue/Enqueue ns3::PppHeader (Point-to-Point Protocol: IP (0x0021)) ns3::Ipv4Header (tos 0x0 DSCP Default ECN Not-ECT ttl 64 id 1 protocol 17 offset (bytes) 0 flags [none] length: 1052 10.1.1.1 > 10.1.2.2) ns3::UdpHeader (length: 1032 49153 > 8000) ns3::SeqTsHeader ((seq=1 time=0.05)) Payload (size=1012)
- 0.05 /NodeList/0/DeviceList/0/$ns3::PointToPointNetDevice/TxQueue/Dequeue ns3::PppHeader (Point-to-Point Protocol: IP (0x0021)) ns3::Ipv4Header (tos 0x0 DSCP Default ECN Not-ECT ttl 64 id 1 protocol 17 offset (bytes) 0 flags [none] length: 1052 10.1.1.1 > 10.1.2.2) ns3::UdpHeader (length: 1032 49153 > 8000) ns3::SeqTsHeader ((seq=1 time=0.05)) Payload (size=1012)
r 0.0536864 /NodeList/1/DeviceList/0/$ns3::PointToPointNetDevice/MacRx ns3::Ipv4Header (tos 0x0 DSCP Default ECN Not-ECT ttl 64 id 1 protocol 17 offset (bytes) 0 flags [none] length: 1052 10.1.1.1 > 10.1.2.2) ns3::UdpHeader (length: 1032 49153 > 8000) ns3::SeqTsHeader ((seq=1 time=0.05)) Payload (size=1012)
+ 0.1 /NodeList/0/DeviceList/0/$ns3::PointToPointNetDevice/TxQueue/Enqueue ns3::PppHeader (Point-to-Point Protocol: IP (0x0021)) ns3::Ipv4Header (tos 0x0 DSCP Default ECN Not-ECT ttl 64 id 2 protocol 17 offset (bytes) 0 flags [none] length: 1052 10.1.1.1 > 10.1.2.2) ns3::UdpHeader (length: 1032 49153 > 8000) ns3::SeqTsHeader ((seq=2 time=0.1)) Payload (size=1012)
- 0.1 /NodeList/0/DeviceList/0/$ns3::PointToPointNetDevice/TxQueue/Dequeue ns3::PppHeader (Point-to-Point Protocol: IP (0x0021)) ns3::Ipv4Header (tos 0x0 DSCP Default ECN Not-ECT ttl 64 id 2 protocol 17 offset (bytes) 0 flags [none] length: 1052 10.1.1.1 > 10.1.2.2) ns3::UdpHeader (length: 1032 49153 > 8000) ns3::SeqTsHeader ((seq=2 time=0.1)) Payload (size=1012)
r 0.103686 /NodeList/1/DeviceList/0/$ns3::PointToPointNetDevice/MacRx ns3::Ipv4Header (tos 0x0 DSCP Default ECN Not-ECT ttl 64 id 2 protocol 17 offset (bytes) 0 flags [none] length: 1052 10.1.1.1 > 10.1.2.2) ns3::UdpHeader (length: 1032 49153 > 8000) ns3::SeqTsHeader ((seq=2 time=0.1)) Payload (size=1012)
+ 0.15 /NodeList/0/DeviceList/0/$ns3::PointToPointNetDevice/TxQueue/Enqueue ns3::PppHeader (Point-to-Point Protocol: IP (0x0021)) ns3::Ipv4Header (tos 0x0 DSCP Default ECN Not-ECT ttl 64 id 3 protocol 17 offset (bytes) 0 flags [none] length: 1052 10.1.1.1 > 10.1.2.2) ns3::UdpHeader (length: 1032 49153 > 8000) ns3::SeqTsHeader ((seq=3 time=0.15)) Payload (size=1012)
- 0.15 /NodeList/0/DeviceList/0/$ns3::PointToPointNetDevice/TxQueue/Dequeue ns3::PppHeader (Point-to-Point Protocol: IP (0x0021)) ns3::Ipv4Header (tos 0x0 DSCP Default ECN Not-ECT ttl 64 id 3 protocol 17 offset (bytes) 0 flags [none] length: 1052 10.1.1.1 > 10.1.2.2) ns3::UdpHeader (length: 1032 49153 > 8000) ns3::SeqTsHeader ((seq=3 time=0.15)) Payload (size=1012)
r 0.153686 /NodeList/1/DeviceList/0/$ns3::PointToPointNetDevice/MacRx ns3::Ipv4Header (tos 0x0 DSCP Default ECN Not-ECT ttl 64 id 3 protocol 17 offset (bytes) 0 flags [none] length: 1052 10.1.1.1 > 10.1.2.2) ns3::UdpHeader (length: 1032 49153 > 8000) ns3::SeqTsHeader ((seq=3 time=0.15)) Payload (size=1012)
+ 0.2 /NodeList/0/DeviceList/0/$ns3::PointToPointNetDevice/TxQueue/Enqueue ns3::PppHeader (Point-to-Point Protocol: IP (0x0021)) ns3::Ipv4Header (tos 0x0 DSCP Default ECN Not-ECT ttl 64 id 4 protocol 17 offset (bytes) 0 flags [none] length: 1052 10.1.1.1 > 10.1.2.2) ns3::UdpHeader (length: 1032 49153 > 8000) ns3::SeqTsHeader ((seq=4 time=0.2)) Payload (size=1012)
- 0.2 /NodeList/0/DeviceList/0/$ns3::PointToPointNetDevice/TxQueue/Dequeue ns3::PppHeader (Point-to-Point Protocol: IP (0x0021)) ns3::Ipv4Header (tos 0x0 DSCP Default ECN Not-ECT ttl 64 id 4 protocol 17 offset (bytes) 0 flags [none] length: 1052 10.1.1.1 > 10.1.2.2) ns3::UdpHeader (length: 1032 49153 > 8000) ns3::SeqTsHeader ((seq=4 time=0.2)) Payload (size=1012)
r 0.203686 /NodeList/1/DeviceList/0/$ns3::PointToPointNetDevice/MacRx ns3::Ipv4Header (tos 0x0 DSCP Default ECN Not-ECT ttl 64 id 4 protocol 17 offset (bytes) 0 flags [none] length: 1052 10.1.1.1 > 10.1.2.2) ns3::UdpHeader (length: 1032 49153 > 8000) ns3::SeqTsHeader ((seq=4 time=0.2)) Payload (size=1012)
+ 0.25 /NodeList/0/DeviceList/0/$ns3::PointToPointNetDevice/TxQueue/Enqueue ns3::PppHeader (Point-to-Point Protocol: IP (0x0021)) ns3::Ipv4Header (tos 0x0 DSCP Default ECN Not-ECT ttl 64 id 5 protocol 17 offset (bytes) 0 flags [none] length: 1052 10.1.1.1 > 10.1.2.2) ns3::UdpHeader (length: 1032 49153 > 8000) ns3::SeqTsHeader ((seq=5 time=0.25)) Payload (size=1012)
- 0.25 /NodeList/0/DeviceList/0/$ns3::PointToPointNetDevice/TxQueue/Dequeue ns3::PppHeader (Point-to-Point Protocol: IP (0x0021)) ns3::Ipv4Header (tos 0x0 DSCP Default ECN Not-ECT ttl 64 id 5 protocol 17 offset (bytes) 0 flags [none] length: 1052 10.1.1.1 > 10.1.2.2) ns3::UdpHeader (length: 1032 49153 > 8000) ns3::SeqTsHeader ((seq=5 time=0.25)) Payload (size=1012)
r 0.253686 /NodeList/1/DeviceList/0/$ns3::PointToPointNetDevice/MacRx ns3::Ipv4Header (tos 0x0 DSCP Default ECN Not-ECT ttl 64 id 5 protocol 17 offset (bytes) 0 flags [none] length: 1052 10.1.1.1 > 10.1.2.2) ns3::UdpHeader (length: 1032 49153 > 8000) ns3::SeqTsHeader ((seq=5 time=0.25)) Payload (size=1012)
+ 0.3 /NodeList/0/DeviceList/0/$ns3::PointToPointNetDevice/TxQueue/Enqueue ns3::PppHeader (Point-to-Point Protocol: IP (0x0021)) ns3::Ipv4Header (tos 0x0 DSCP Default ECN Not-ECT ttl 64 id 6 protocol 17 offset (bytes) 0 flags [none] length: 1052 10.1.1.1 > 10.1.2.2) ns3::UdpHeader (length: 1032 49153 > 8000) ns3::SeqTsHeader ((seq=6 time=0.3)) Payload (size=1012)
- 0.3 /NodeList/0/DeviceList/0/$ns3::PointToPointNetDevice/TxQueue/Dequeue ns3::PppHeader (Point-to-Point Protocol: IP (0x0021)) ns3::Ipv4Header (tos 0x0 DSCP Default ECN Not-ECT ttl 64 id 6 protocol 17 offset (bytes) 0 flags [none] length: 1052 10.1.1.1 > 10.1.2.2) ns3::UdpHeader (length: 1032 49153 > 8000) ns3::SeqTsHeader ((seq=6 time=0.3)) Payload (size=1012)
r 0.303686 /NodeList/1/DeviceList/0/$ns3::PointToPointNetDevice/MacRx ns3::Ipv4Header (tos 0x0 DSCP Default ECN Not-ECT ttl 64 id 6 protocol 17 offset (bytes) 0 flags [none] length: 1052 10.1.1.1 > 10.1.2.2) ns3::UdpHeader (length: 1032 49153 > 8000) ns3::SeqTsHeader ((seq=6 time=0.3)) Payload (size=1012)
+ 0.35 /NodeList/0/DeviceList/0/$ns3::PointToPointNetDevice/TxQueue/Enqueue ns3::PppHeader (Point-to-Point Protocol: IP (0x0021)) ns3::Ipv4Header (tos 0x0 DSCP Default ECN Not-ECT ttl 64 id 7 protocol 17 offset (bytes) 0 flags [none] length: 1052 10.1.1.1 > 10.1.2.2) ns3::UdpHeader (length: 1032 49153 > 8000) ns3::SeqTsHeader ((seq=7 time=0.35)) Payload (size=1012)
- 0.35 /NodeList/0/DeviceList/0/$ns3::PointToPointNetDevice/TxQueue/Dequeue ns3::PppHeader (Point-to-Point Protocol: IP (0x0021)) ns3::Ipv4Header (tos 0x0 DSCP Default ECN Not-ECT ttl 64 id 7 protocol 17 offset (bytes) 0 flags [none] length: 1052 10.1.1.1 > 10.1.2.2) ns3::UdpHeader (length: 1032 49153 > 8000) ns3::SeqTsHeader ((seq=7 time=0.35)) Payload (size=1012)
r 0.353686 /NodeList/1/DeviceList/0/$ns3::PointToPointNetDevice/MacRx ns3::Ipv4Header (tos 0x0 DSCP Default ECN Not-ECT ttl 64 id 7 protocol 17 offset (bytes) 0 flags [none] length: 1052 10.1.1.1 > 10.1.2.2) ns3::UdpHeader (length: 1032 49153 > 8000) ns3::SeqTsHeader ((seq=7 time=0.35)) Payload (size=1012)
+ 0.4 /NodeList/0/DeviceList/0/$ns3::PointToPointNetDevice/TxQueue/Enqueue ns3::PppHeader (Point-to-Point Protocol: IP (0x0021)) ns3::Ipv4Header (tos 0x0 DSCP Default ECN Not-ECT ttl 64 id 8 protocol 17 offset (bytes) 0 flags [none] length: 1052 10.1.1.1 > 10.1.2.2) ns3::UdpHeader (length: 1032 49153 > 8000) ns3::SeqTsHeader ((seq=8 time=0.4)) Payload (size=1012)
- 0.4 /NodeList/0/DeviceList/0/$ns3::PointToPointNetDevice/TxQueue/Dequeue ns3::PppHeader (Point-to-Point Protocol: IP (0x0021)) ns3::Ipv4Header (tos 0x0 DSCP Default ECN Not-ECT ttl 64 id 8 protocol 17 offset (bytes) 0 flags [none] length: 1052 10.1.1.1 > 10.1.2.2) ns3::UdpHeader (length: 1032 49153 > 8000) ns3::SeqTsHeader ((seq=8 time=0.4)) Payload (size=1012)
r 0.403686 /NodeList/1/DeviceList/0/$ns3::PointToPointNetDevice/MacRx ns3::Ipv4Header (tos 0x0 DSCP Default ECN Not-ECT ttl 64 id 8 protocol 17 offset (bytes) 0 flags [none] length: 1052 10.1.1.1 > 10.1.2.2) ns3::UdpHeader (length: 1032 49153 > 8000) ns3::SeqTsHeader ((seq=8 time=0.4)) Payload (size=1012)
+ 0.45 /NodeList/0/DeviceList/0/$ns3::PointToPointNetDevice/TxQueue/Enqueue ns3::PppHeader (Point-to-Point Protocol: IP (0x0021)) ns3::Ipv4Header (tos 0x0 DSCP Default ECN Not-ECT ttl 64 id 9 protocol 17 offset (bytes) 0 flags [none] length: 1052 10.1.1.1 > 10.1.2.2) ns3::UdpHeader (length: 1032 49153 > 8000) ns3::SeqTsHeader ((seq=9 time=0.45)) Payload (size=1012)
- 0.45 /NodeList/0/DeviceList/0/$ns3::PointToPointNetDevice/TxQueue/Dequeue ns3::PppHeader (Point-to-Point Protocol: IP (0x0021)) ns3::Ipv4Header (tos 0x0 DSCP Default ECN Not-ECT ttl 64 id 9 protocol 17 offset (bytes) 0 flags [none] length: 1052 10.1.1.1 > 10.1.2.2) ns3::UdpHeader (length: 1032 49153 > 8000) ns3::SeqTsHeader ((seq=9 time=0.45)) Payload (size=1012)
r 0.453686 /NodeList/1/DeviceList/0/$ns3::PointToPointNetDevice/MacRx ns3::Ipv4Header (tos 0x0 DSCP Default ECN Not-ECT ttl 64 id 9 protocol 17 offset (bytes) 0 flags [none] length: 1052 10.1.1.1 > 10.1.2.2) ns3::UdpHeader (length: 1032 49153 > 8000) ns3::SeqTsHeader ((seq=9 time=0.45)) Payload (size=1012)
+ 0.5 /NodeList/0/DeviceList/0/$ns3::PointToPointNetDevice/TxQueue/Enqueue ns3::PppHeader (Point-to-Point Protocol: IP (0x0021)) ns3::Ipv4Header (tos 0x0 DSCP Default ECN Not-ECT ttl 64 id 10 protocol 17 offset (bytes) 0 flags [none] length: 1052 10.1.1.1 > 10.1.2.2) ns3::UdpHeader (length: 1032 49153 > 8000) ns3::SeqTsHeader ((seq=10 time=0.5)) Payload (size=1012)
- 0.5 /NodeList/0/DeviceList/0/$ns3::PointToPointNetDevice/TxQueue/Dequeue ns3::PppHeader (Point-to-Point Protocol: IP (0x0021)) ns3::Ipv4Header (tos 0x0 DSCP Default ECN Not-ECT ttl 64 id 10 protocol 17 offset (bytes) 0 flags [none] length: 1052 10.1.1.1 > 10.1.2.2) ns3::UdpHeader (length: 1032 49153 > 8000) ns3::SeqTsHeader ((seq=10 time=0.5)) Payload (size=1012)
r 0.503686 /NodeList/1/DeviceList/0/$ns3::PointToPointNetDevice/MacRx ns3::Ipv4Header (tos 0x0 DSCP Default ECN Not-ECT ttl 64 id 10 protocol 17 offset (bytes) 0 flags [none] length: 1052 10.1.1.1 > 10.1.2.2) ns3::UdpHeader (length: 1032 49153 > 8000) ns3::SeqTsHeader ((seq=10 time=0.5)) Payload (size=1012)
+ 0.55 /NodeList/0/DeviceList/0/$ns3::PointToPointNetDevice/TxQueue/Enqueue ns3::PppHeader (Point-to-Point Protocol: IP (0x0021)) ns3::Ipv4Header (tos 0x0 DSCP Default ECN Not-ECT ttl 64 id 11 protocol 17 offset (bytes) 0 flags [none] length: 1052 10.1.1.1 > 10.1.2.2) ns3::UdpHeader (length: 1032 49153 > 8000) ns3::SeqTsHeader ((seq=11 time=0.55)) Payload (size=1012)
- 0.55 /NodeList/0/DeviceList/0/$ns3::PointToPointNetDevice/TxQueue/Dequeue ns3::PppHeader (Point-to-Point Protocol: IP (0x0021)) ns3::Ipv4Header (tos 0x0 DSCP Default ECN Not-ECT ttl 64 id 11 protocol 17 offset (bytes) 0 flags [none] length: 1052 10.1.1.1 > 10.1.2.2) ns3::UdpHeader (length: 1032 49153 > 8000) ns3::SeqTsHeader ((seq=11 time=0.55)) Payload (size=1012)
r 0.553686 /NodeList/1/DeviceList/0/$ns3::PointToPointNetDevice/MacRx ns3::Ipv4Header (tos 0x0 DSCP Default ECN Not-ECT ttl 64 id 11 protocol 17 offset (bytes) 0 flags [none] length: 1052 10.1.1.1 > 10.1.2.2) ns3::UdpHeader (length: 1032 49153 > 8000) ns3::SeqTsHeader ((seq=11 time=0.55)) Payload (size=1012)
+ 0.6 /NodeList/0/DeviceList/0/$ns3::PointToPointNetDevice/TxQueue/Enqueue ns3::PppHeader (Point-to-Point Protocol: IP (0x0021)) ns3::Ipv4Header (tos 0x0 DSCP Default ECN Not-ECT ttl 64 id 12 protocol 17 offset (bytes) 0 flags [none] length: 1052 10.1.1.1 > 10.1.2.2) ns3::UdpHeader (length: 1032 49153 > 8000) ns3::SeqTsHeader ((seq=12 time=0.6)) Payload (size=1012)
- 0.6 /NodeList/0/DeviceList/0/$ns3::PointToPointNetDevice/TxQueue/Dequeue ns3::PppHeader (Point-to-Point Protocol: IP (0x0021)) ns3::Ipv4Header (tos 0x0 DSCP Default ECN Not-ECT ttl 64 id 12 protocol 17 offset (bytes) 0 flags [none] length: 1052 10.1.1.1 > 10.1.2.2) ns3::UdpHeader (length: 1032 49153 > 8000) ns3::SeqTsHeader ((seq=12 time=0.6)) Payload (size=1012)
r 0.603686 /NodeList/1/DeviceList/0/$ns3::PointToPointNetDevice/MacRx ns3::Ipv4Header (tos 0x0 DSCP Default ECN Not-ECT ttl 64 id 12 protocol 17 offset (bytes) 0 flags [none] length: 1052 10.1.1.1 > 10.1.2.2) ns3::UdpHeader (length: 1032 49153 > 8000) ns3::SeqTsHeader ((seq=12 time=0.6)) Payload (size=1012)
+ 0.65 /NodeList/0/DeviceList/0/$ns3::PointToPointNetDevice/TxQueue/Enqueue ns3::PppHeader (Point-to-Point Protocol: IP (0x0021)) ns3::Ipv4Header (tos 0x0 DSCP Default ECN Not-ECT ttl 64 id 13 protocol 17 offset (bytes) 0 flags [none] length: 1052 10.1.1.1 > 10.1.2.2) ns3::UdpHeader (length: 1032 49153 > 8000) ns3::SeqTsHeader ((seq=13 time=0.65)) Payload (size=1012)
- 0.65 /NodeList/0/DeviceList/0/$ns3::PointToPointNetDevice/TxQueue/Dequeue ns3::PppHeader (Point-to-Point Protocol: IP (0x0021)) ns3::Ipv4Header (tos 0x0 DSCP Default ECN Not-ECT ttl 64 id 13 protocol 17 offset (bytes) 0 flags [none] length: 1052 10.1.1.1 > 10.1.2.2) ns3::UdpHeader (length: 1032 49153 > 8000) ns3::SeqTsHeader ((seq=13 time=0.65)) Payload (size=1012)
r 0.653686 /NodeList/1/DeviceList/0/$ns3::PointToPointNetDevice/MacRx ns3::Ipv4Header (tos 0x0 DSCP Default ECN Not-ECT ttl 64 id 13 protocol 17 offset (bytes) 0 flags [none] length: 1052 10.1.1.1 > 10.1.2.2) ns3::UdpHeader (length: 1032 49153 > 8000) ns3::SeqTsHeader ((seq=13 time=0.65)) Payload (size=1012)
+ 0.7 /NodeList/0/DeviceList/0/$ns3::PointToPointNetDevice/TxQueue/Enqueue ns3::PppHeader (Point-to-Point Protocol: IP (0x0021)) ns3::Ipv4Header (tos 0x0 DSCP Default ECN Not-ECT ttl 64 id 14 protocol 17 offset (bytes) 0 flags [none] length: 1052 10.1.1.1 > 10.1.2.2) ns3::UdpHeader (length: 1032 49153 > 8000) ns3::SeqTsHeader ((seq=14 time=0.7)) Payload (size=1012)
- 0.7 /NodeList/0/DeviceList/0/$ns3::PointToPointNetDevice/TxQueue/Dequeue ns3::PppHeader (Point-to-Point Protocol: IP (0x0021)) ns3::Ipv4Header (tos 0x0 DSCP Default ECN Not-ECT ttl 64 id 14 protocol 17 offset (bytes) 0 flags [none] length: 1052 10.1.1.1 > 10.1.2.2) ns3::UdpHeader (length: 1032 49153 > 8000) ns3::SeqTsHeader ((seq=14 time=0.7)) Payload (size=1012)
r 0.703686 /NodeList/1/DeviceList/0/$ns3::PointToPointNetDevice/MacRx ns3::Ipv4Header (tos 0x0 DSCP Default ECN Not-ECT ttl 64 id 14 protocol 17 offset (bytes) 0 flags [none] length: 1052 10.1.1.1 > 10.1.2.2) ns3::UdpHeader (length: 1032 49153 > 8000) ns3::SeqTsHeader ((seq=14 time=0.7)) Payload (size=1012)
+ 0.75 /NodeList/0/DeviceList/0/$ns3::PointToPointNetDevice/TxQueue/Enqueue ns3::PppHeader (Point-to-Point Protocol: IP (0x0021)) ns3::Ipv4Header (tos 0x0 DSCP Default ECN Not-ECT ttl 64 id 15 protocol 17 offset (bytes) 0 flags [none] length: 1052 10.1.1.1 > 10.1.2.2) ns3::UdpHeader (length: 1032 49153 > 8000) ns3::SeqTsHeader ((seq=15 time=0.75)) Payload (size=1012)
- 0.75 /NodeList/0/DeviceList/0/$ns3::PointToPointNetDevice/TxQueue/Dequeue ns3::PppHeader (Point-to-Point Protocol: IP (0x0021)) ns3::Ipv4Header (tos 0x0 DSCP Default ECN Not-ECT ttl 64 id 15 protocol 17 offset (bytes) 0 flags [none] length: 1052 10.1.1.1 > 10.1.2.2) ns3::UdpHeader (length: 1032 49153 > 8000) ns3::SeqTsHeader ((seq=15 time=0.75)) Payload (size=1012)
r 0.753686 /NodeList/1/DeviceList/0/$ns3::PointToPointNetDevice/MacRx ns3::Ipv4Header (tos 0x0 DSCP Default ECN Not-ECT ttl 64 id 15 protocol 17 offset (bytes) 0 flags [none] length: 1052 10.1.1.1 > 10.1.2.2) ns3::UdpHeader (length: 1032 49153 > 8000) ns3::SeqTsHeader ((seq=15 time=0.75)) Payload (size=1012)
+ 0.8 /NodeList/0/DeviceList/0/$ns3::PointToPointNetDevice/TxQueue/Enqueue ns3::PppHeader (Point-to-Point Protocol: IP (0x0021)) ns3::Ipv4Header (tos 0x0 DSCP Default ECN Not-ECT ttl 64 id 16 protocol 17 offset (bytes) 0 flags [none] length: 1052 10.1.1.1 > 10.1.2.2) ns3::UdpHeader (length: 1032 49153 > 8000) ns3::SeqTsHeader ((seq=16 time=0.8)) Payload (size=1012)
- 0.8 /NodeList/0/DeviceList/0/$ns3::PointToPointNetDevice/TxQueue/Dequeue ns3::PppHeader (Point-to-Point Protocol: IP (0x0021)) ns3::Ipv4Header (tos 0x0 DSCP Default ECN Not-ECT ttl 64 id 16 protocol 17 offset (bytes) 0 flags [none] length: 1052 10.1.1.1 > 10.1.2.2) ns3::UdpHeader (length: 1032 49153 > 8000) ns3::SeqTsHeader ((seq=16 time=0.8)) Payload (size=1012)
r 0.803686 /NodeList/1/DeviceList/0/$ns3::PointToPointNetDevice/MacRx ns3::Ipv4Header (tos 0x0 DSCP Default ECN Not-ECT ttl 64 id 16 protocol 17 offset (bytes) 0 flags [none] length: 1052 10.1.1.1 > 10.1.2.2) ns3::UdpHeader (length: 1032 49153 > 8000) ns3::SeqTsHeader ((seq=16 time=0.8)) Payload (size=1012)
+ 0.85 /NodeList/0/DeviceList/0/$ns3::PointToPointNetDevice/TxQueue/Enqueue ns3::PppHeader (Point-to-Point Protocol: IP (0x0021)) ns3::Ipv4Header (tos 0x0 DSCP Default ECN Not-ECT ttl 64 id 17 protocol 17 offset (bytes) 0 flags [none] length: 1052 10.1.1.1 > 10.1.2.2) ns3::UdpHeader (length: 1032 49153 > 8000) ns3::SeqTsHeader ((seq=17 time=0.85)) Payload (size=1012)
- 0.85 /NodeList/0/DeviceList/0/$ns3::PointToPointNetDevice/TxQueue/Dequeue ns3::PppHeader (Point-to-Point Protocol: IP (0x0021)) ns3::Ipv4Header (tos 0x0 DSCP Default ECN Not-ECT ttl 64 id 17 protocol 17 offset (bytes) 0 flags [none] length: 1052 10.1.1.1 > 10.1.2.2) ns3::UdpHeader (length: 1032 49153 > 8000) ns3::SeqTsHeader ((seq=17 time=0.85)) Payload (size=1012)
r 0.853686 /NodeList/1/DeviceList/0/$ns3::PointToPointNetDevice/MacRx ns3::Ipv4Header (tos 0x0 DSCP Default ECN Not-ECT ttl 64 id 17 protocol 17 offset (bytes) 0 flags [none] length: 1052 10.1.1.1 > 10.1.2.2) ns3::UdpHeader (length: 1032 49153 > 8000) ns3::SeqTsHeader ((seq=17 time=0.85)) Payload (size=1012)
+ 0.9 /NodeList/0/DeviceList/0/$ns3::PointToPointNetDevice/TxQueue/Enqueue ns3::PppHeader (Point-to-Point Protocol: IP (0x0021)) ns3::Ipv4Header (tos 0x0 DSCP Default ECN Not-ECT ttl 64 id 18 protocol 17 offset (bytes) 0 flags [none] length: 1052 10.1.1.1 > 10.1.2.2) ns3::UdpHeader (length: 1032 49153 > 8000) ns3::SeqTsHeader ((seq=18 time=0.9)) Payload (size=1012)
- 0.9 /NodeList/0/DeviceList/0/$ns3::PointToPointNetDevice/TxQueue/Dequeue ns3::PppHeader (Point-to-Point Protocol: IP (0x0021)) ns3::Ipv4Header (tos 0x0 DSCP Default ECN Not-ECT ttl 64 id 18 protocol 17 offset (bytes) 0 flags [none] length: 1052 10.1.1.1 > 10.1.2.2) ns3::UdpHeader (length: 1032 49153 > 8000) ns3::SeqTsHeader ((seq=18 time=0.9)) Payload (size=1012)
r 0.903686 /NodeList/1/DeviceList/0/$ns3::PointToPointNetDevice/MacRx ns3::Ipv4Header (tos 0x0 DSCP Default ECN Not-ECT ttl 64 id 18 protocol 17 offset (bytes) 0 flags [none] length: 1052 10.1.1.1 > 10.1.2.2) ns3::UdpHeader (length: 1032 49153 > 8000) ns3::SeqTsHeader ((seq=18 time=0.9)) Payload (size=1012)
+ 0.95 /NodeList/0/DeviceList/0/$ns3::PointToPointNetDevice/TxQueue/Enqueue ns3::PppHeader (Point-to-Point Protocol: IP (0x0021)) ns3::Ipv4Header (tos 0x0 DSCP Default ECN Not-ECT ttl 64 id 19 protocol 17 offset (bytes) 0 flags [none] length: 1052 10.1.1.1 > 10.1.2.2) ns3::UdpHeader (length: 1032 49153 > 8000) ns3::SeqTsHeader ((seq=19 time=0.95)) Payload (size=1012)
- 0.95 /NodeList/0/DeviceList/0/$ns3::PointToPointNetDevice/TxQueue/Dequeue ns3::PppHeader (Point-to-Point Protocol: IP (0x0021)) ns3::Ipv4Header (tos 0x0 DSCP Default ECN Not-ECT ttl 64 id 19 protocol 17 offset (bytes) 0 flags [none] length: 1052 10.1.1.1 > 10.1.2.2) ns3::UdpHeader (length: 1032 49153 > 8000) ns3::SeqTsHeader ((seq=19 time=0.95)) Payload (size=1012)
r 0.953686 /NodeList/1/DeviceList/0/$ns3::PointToPointNetDevice/MacRx ns3::Ipv4Header (tos 0x0 DSCP Default ECN Not-ECT ttl 64 id 19 protocol 17 offset (bytes) 0 flags [none] length: 1052 10.1.1.1 > 10.1.2.2) ns3::UdpHeader (length: 1032 49153 > 8000) ns3::SeqTsHeader ((seq=19 time=0.95)) Payload (size=1012)
+ 1 /NodeList/0/DeviceList/0/$ns3::PointToPointNetDevice/TxQueue/Enqueue ns3::PppHeader (Point-to-Point Protocol: IP (0x0021)) ns3::Ipv4Header (tos 0x0 DSCP Default ECN Not-ECT ttl 64 id 20 protocol 17 offset (bytes) 0 flags [none] length: 1052 10.1.1.1 > 10.1.2.2) ns3::UdpHeader (length: 1032 49153 > 8000) ns3::SeqTsHeader ((seq=20 time=1)) Payload (size=1012)
- 1 /NodeList/0/DeviceList/0/$ns3::PointToPointNetDevice/TxQueue/Dequeue ns3::PppHeader (Point-to-Point Protocol: IP (0x0021)) ns3::Ipv4Header (tos 0x0 DSCP Default ECN Not-ECT ttl 64 id 20 protocol 17 offset (bytes) 0 flags [none] length: 1052 10.1.1.1 > 10.1.2.2) ns3::UdpHeader (length: 1032 49153 > 8000) ns3::SeqTsHeader ((seq=20 time=1)) Payload (size=1012)
r 1.00369 /NodeList/1/DeviceList/0/$ns3::PointToPointNetDevice/MacRx ns3::Ipv4Header (tos 0x0 DSCP Default ECN Not-ECT ttl 64 id 20 protocol 17 offset (bytes) 0 flags [none] length: 1052 10.1.1.1 > 10.1.2.2) ns3::UdpHeader (length: 1032 49153 > 8000) ns3::SeqTsHeader ((seq=20 time=1)) Payload (size=1012)
+ 1.05 /NodeList/0/DeviceList/0/$ns3::PointToPointNetDevice/TxQueue/Enqueue ns3::PppHeader (Point-to-Point Protocol: IP (0x0021)) ns3::Ipv4Header (tos 0x0 DSCP Default ECN Not-ECT ttl 64 id 21 protocol 17 offset (bytes) 0 flags [none] length: 1052 10.1.1.1 > 10.1.2.2) ns3::UdpHeader (length: 1032 49153 > 8000) ns3::SeqTsHeader ((seq=21 time=1.05)) Payload (size=1012)
- 1.05 /NodeList/0/DeviceList/0/$ns3::PointToPointNetDevice/TxQueue/Dequeue ns3::PppHeader (Point-to-Point Protocol: IP (0x0021)) ns3::Ipv4Header (tos 0x0 DSCP Default ECN Not-ECT ttl 64 id 21 protocol 17 offset (bytes) 0 flags [none] length: 1052 10.1.1.1 > 10.1.2.2) ns3::UdpHeader (length: 1032 49153 > 8000) ns3::SeqTsHeader ((seq=21 time=1.05)) Payload (size=1012)
r 1.05369 /NodeList/1/DeviceList/0/$ns3::PointToPointNetDevice/MacRx ns3::Ipv4Header (tos 0x0 DSCP Default ECN Not-ECT ttl 64 id 21 protocol 17 offset (bytes) 0 flags [none] length: 1052 10.1.1.1 > 10.1.2.2) ns3::UdpHeader (length: 1032 49153 > 8000) ns3::SeqTsHeader ((seq=21 time=1.05)) Payload (size=1012)
+ 1.1 /NodeList/0/DeviceList/0/$ns3::PointToPointNetDevice/TxQueue/Enqueue ns3::PppHeader (Point-to-Point Protocol: IP (0x0021)) ns3::Ipv4Header (tos 0x0 DSCP Default ECN Not-ECT ttl 64 id 22 protocol 17 offset (bytes) 0 flags [none] length: 1052 10.1.1.1 > 10.1.2.2) ns3::UdpHeader (length: 1032 49153 > 8000) ns3::SeqTsHeader ((seq=22 time=1.1)) Payload (size=1012)
- 1.1 /NodeList/0/DeviceList/0/$ns3::PointToPointNetDevice/TxQueue/Dequeue ns3::PppHeader (Point-to-Point Protocol: IP (0x0021)) ns3::Ipv4Header (tos 0x0 DSCP Default ECN Not-ECT ttl 64 id 22 protocol 17 offset (bytes) 0 flags [none] length: 1052 10.1.1.1 > 10.1.2.2) ns3::UdpHeader (length: 1032 49153 > 8000) ns3::SeqTsHeader ((seq=22 time=1.1)) Payload (size=1012)
r 1.10369 /NodeList/1/DeviceList/0/$ns3::PointToPointNetDevice/MacRx ns3::Ipv4Header (tos 0x0 DSCP Default ECN Not-ECT ttl 64 id 22 protocol 17 offset (bytes) 0 flags [none] length: 1052 10.1.1.1 > 10.1.2.2) ns3::UdpHeader (length: 1032 49153 > 8000) ns3::SeqTsHeader ((seq=22 time=1.1)) Payload (size=1012)
+ 1.15 /NodeList/0/DeviceList/0/$ns3::PointToPointNetDevice/TxQueue/Enqueue ns3::PppHeader (Point-to-Point Protocol: IP (0x0021)) ns3::Ipv4Header (tos 0x0 DSCP Default ECN Not-ECT ttl 64 id 23 protocol 17 offset (bytes) 0 flags [none] length: 1052 10.1.1.1 > 10.1.2.2) ns3::UdpHeader (length: 1032 49153 > 8000) ns3::SeqTsHeader ((seq=23 time=1.15)) Payload (size=1012)
- 1.15 /NodeList/0/DeviceList/0/$ns3::PointToPointNetDevice/TxQueue/Dequeue ns3::PppHeader (Point-to-Point Protocol: IP (0x0021)) ns3::Ipv4Header (tos 0x0 DSCP Default ECN Not-ECT ttl 64 id 23 protocol 17 offset (bytes) 0 flags [none] length: 1052 10.1.1.1 > 10.1.2.2) ns3::UdpHeader (length: 1032 49153 > 8000) ns3::SeqTsHeader ((seq=23 time=1.15)) Payload (size=1012)
r 1.15369 /NodeList/1/DeviceList/0/$ns3::PointToPointNetDevice/MacRx ns3::Ipv4Header (tos 0x0 DSCP Default ECN Not-ECT ttl 64 id 23 protocol 17 offset (bytes) 0 flags [none] length: 1052 10.1.1.1 > 10.1.2.2) ns3::UdpHeader (length: 1032 49153 > 8000) ns3::SeqTsHeader ((seq=23 time=1.15)) Payload (size=1012)
+ 1.2 /NodeList/0/DeviceList/0/$ns3::PointToPointNetDevice/TxQueue/Enqueue ns3::PppHeader (Point-to-Point Protocol: IP (0x0021)) ns3::Ipv4Header (tos 0x0 DSCP Default ECN Not-ECT ttl 64 id 24 protocol 17 offset (bytes) 0 flags [none] length: 1052 10.1.1.1 > 10.1.2.2) ns3::UdpHeader (length: 1032 49153 > 8000) ns3::SeqTsHeader ((seq=24 time=1.2)) Payload (size=1012)
- 1.2 /NodeList/0/DeviceList/0/$ns3::PointToPointNetDevice/TxQueue/Dequeue ns3::PppHeader (Point-to-Point Protocol: IP (0x0021)) ns3::Ipv4Header (tos 0x0 DSCP Default ECN Not-ECT ttl 64 id 24 protocol 17 offset (bytes) 0 flags [none] length: 1052 10.1.1.1 > 10.1.2.2) ns3::UdpHeader (length: 1032 49153 > 8000) ns3::SeqTsHeader ((seq=24 time=1.2)) Payload (size=1012)
r 1.20369 /NodeList/1/DeviceList/0/$ns3::PointToPointNetDevice/MacRx ns3::Ipv4Header (tos 0x0 DSCP Default ECN Not-ECT ttl 64 id 24 protocol 17 offset (bytes) 0 flags [none] length: 1052 10.1.1.1 > 10.1.2.2) ns3::UdpHeader (length: 1032 49153 > 8000) ns3::SeqTsHeader ((seq=24 time=1.2)) Payload (size=1012)
+ 1.25 /NodeList/0/DeviceList/0/$ns3::PointToPointNetDevice/TxQueue/Enqueue ns3::PppHeader (Point-to-Point Protocol: IP (0x0021)) ns3::Ipv4Header (tos 0x0 DSCP Default ECN Not-ECT ttl 64 id 25 protocol 17 offset (bytes) 0 flags [none] length: 1052 10.1.1.1 > 10.1.2.2) ns3::UdpHeader (length: 1032 49153 > 8000) ns3::SeqTsHeader ((seq=25 time=1.25)) Payload (size=1012)
- 1.25 /NodeList/0/DeviceList/0/$ns3::PointToPointNetDevice/TxQueue/Dequeue ns3::PppHeader (Point-to-Point Protocol: IP (0x0021)) ns3::Ipv4Header (tos 0x0 DSCP Default ECN Not-ECT ttl 64 id 25 protocol 17 offset (bytes) 0 flags [none] length: 1052 10.1.1.1 > 10.1.2.2) ns3::UdpHeader (length: 1032 49153 > 8000) ns3::SeqTsHeader ((seq=25 time=1.25)) Payload (size=1012)
r 1.25369 /NodeList/1/DeviceList/0/$ns3::PointToPointNetDevice/MacRx ns3::Ipv4Header (tos 0x0 DSCP Default ECN Not-ECT ttl 64 id 25 protocol 17 offset (bytes) 0 flags [none] length: 1052 10.1.1.1 > 10.1.2.2) ns3::UdpHeader (length: 1032 49153 > 8000) ns3::SeqTsHeader ((seq=25 time=1.25)) Payload (size=1012)
+ 1.3 /NodeList/0/DeviceList/0/$ns3::PointToPointNetDevice/TxQueue/Enqueue ns3::PppHeader (Point-to-Point Protocol: IP (0x0021)) ns3::Ipv4Header (tos 0x0 DSCP Default ECN Not-ECT ttl 64 id 26 protocol 17 offset (bytes) 0 flags [none] length: 1052 10.1.1.1 > 10.1.2.2) ns3::UdpHeader (length: 1032 49153 > 8000) ns3::SeqTsHeader ((seq=26 time=1.3)) Payload (size=1012)
- 1.3 /NodeList/0/DeviceList/0/$ns3::PointToPointNetDevice/TxQueue/Dequeue ns3::PppHeader (Point-to-Point Protocol: IP (0x0021)) ns3::Ipv4Header (tos 0x0 DSCP Default ECN Not-ECT ttl 64 id 26 protocol 17 offset (bytes) 0 flags [none] length: 1052 10.1.1.1 > 10.1.2.2) ns3::UdpHeader (length: 1032 49153 > 8000) ns3::SeqTsHeader ((seq=26 time=1.3)) Payload (size=1012)
r 1.30369 /NodeList/1/DeviceList/0/$ns3::PointToPointNetDevice/MacRx ns3::Ipv4Header (tos 0x0 DSCP Default ECN Not-ECT ttl 64 id 26 protocol 17 offset (bytes) 0 flags [none] length: 1052 10.1.1.1 > 10.1.2.2) ns3::UdpHeader (length: 1032 49153 > 8000) ns3::SeqTsHeader ((seq=26 time=1.3)) Payload (size=1012)
+ 1.35 /NodeList/0/DeviceList/0/$ns3::PointToPointNetDevice/TxQueue/Enqueue ns3::PppHeader (Point-to-Point Protocol: IP (0x0021)) ns3::Ipv4Header (tos 0x0 DSCP Default ECN Not-ECT ttl 64 id 27 protocol 17 offset (bytes) 0 flags [none] length: 1052 10.1.1.1 > 10.1.2.2) ns3::UdpHeader (length: 1032 49153 > 8000) ns3::SeqTsHeader ((seq=27 time=1.35)) Payload (size=1012)
- 1.35 /NodeList/0/DeviceList/0/$ns3::PointToPointNetDevice/TxQueue/Dequeue ns3::PppHeader (Point-to-Point Protocol: IP (0x0021)) ns3::Ipv4Header (tos 0x0 DSCP Default ECN Not-ECT ttl 64 id 27 protocol 17 offset (bytes) 0 flags [none] length: 1052 10.1.1.1 > 10.1.2.2) ns3::UdpHeader (length: 1032 49153 > 8000) ns3::SeqTsHeader ((seq=27 time=1.35)) Payload (size=1012)
r 1.35369 /NodeList/1/DeviceList/0/$ns3::PointToPointNetDevice/MacRx ns3::Ipv4Header (tos 0x0 DSCP Default ECN Not-ECT ttl 64 id 27 protocol 17 offset (bytes) 0 flags [none] length: 1052 10.1.1.1 > 10.1.2.2) ns3::UdpHeader (length: 1032 49153 > 8000) ns3::SeqTsHeader ((seq=27 time=1.35)) Payload (size=1012)
+ 1.4 /NodeList/0/DeviceList/0/$ns3::PointToPointNetDevice/TxQueue/Enqueue ns3::PppHeader (Point-to-Point Protocol: IP (0x0021)) ns3::Ipv4Header (tos 0x0 DSCP Default ECN Not-ECT ttl 64 id 28 protocol 17 offset (bytes) 0 flags [none] length: 1052 10.1.1.1 > 10.1.2.2) ns3::UdpHeader (length: 1032 49153 > 8000) ns3::SeqTsHeader ((seq=28 time=1.4)) Payload (size=1012)
- 1.4 /NodeList/0/DeviceList/0/$ns3::PointToPointNetDevice/TxQueue/Dequeue ns3::PppHeader (Point-to-Point Protocol: IP (0x0021)) ns3::Ipv4Header (tos 0x0 DSCP Default ECN Not-ECT ttl 64 id 28 protocol 17 offset (bytes) 0 flags [none] length: 1052 10.1.1.1 > 10.1.2.2) ns3::UdpHeader (length: 1032 49153 > 8000) ns3::SeqTsHeader ((seq=28 time=1.4)) Payload (size=1012)